
 Working directory              : /Volumes/Home/Users/peterk/tmp/molpro.qQoUhqt0uW/
 Global scratch directory       : /Volumes/Home/Users/peterk/tmp/molpro.axfTqScWrZ/
 Wavefunction directory         : /Volumes/Home/Users/peterk/wfu/
 Main file repository           : /Volumes/Home/Users/peterk/tmp/molpro.qQoUhqt0uW/

 id        : peterk

 Nodes                  nprocs
 Peters-Mac-mini-2.local    1

 Using customized tuning parameters: mindgm=1; mindgv=20; mindgc=4; mindgr=1; noblas=0; minvec=7
 default implementation of scratch files=df  


 Variables initialized (1000), CPU time= 0.01 sec
 geometry={he}
 basis={s,he,minao;c;p,he,cc-pvdz}
 rhf
 {fci;hamilton}
 {fci;moller,,,,,,,,,5}
 Commands initialized (803), CPU time= 0.00 sec, 659 directives.
 Default parameters read. Elapsed time= 0.05 sec

 Checking input...
 Passed
1


                                         ***  PROGRAM SYSTEM MOLPRO  ***
                                       Copyright, TTI GmbH Stuttgart, 2015
                                    Version 2020.2 linked Dec 16 2020 18:35:29


 **********************************************************************************************************************************
 LABEL *                                                                                 
  64 bit serial version                                                                  DATE: 11-Feb-21          TIME: 06:48:30  
 **********************************************************************************************************************************

 SHA1:             4e93ca8b22d6fe3ac1999d8e76424dbca61d736b
 **********************************************************************************************************************************

 Memory per process:       400 MW
 Total memory per node:    400 MW

 GA preallocation disabled
 GA check disabled

 Variable memory set to 400.0 MW

 SETTING BASIS          =    USERDEF


 Recomputing integrals since basis changed


 Using spherical harmonics

 Library entry HE     S MINAO                selected for orbital group  1
 Library entry HE     P CC-PVDZ              selected for orbital group  1


 PROGRAM * SEWARD (Integral evaluation for generally contracted gaussian basis sets)     Author: Roland Lindh, 1990

 Geometry written to block  1 of record 700

 Orientation using atomic masses  
 Molecule type: Atom
 Symmetry elements: X,Y,Z
 Rotational constants:       0.0000000      0.0000000      0.0000000 GHz  (calculated with average atomic masses)

 Point group  D2h 



 ATOMIC COORDINATES

 NR  ATOM    CHARGE       X              Y              Z

   1  HE      2.00    0.000000000    0.000000000    0.000000000

 NUCLEAR CHARGE:                    2
 NUMBER OF PRIMITIVE AOS:           9
 NUMBER OF SYMMETRY AOS:            9
 NUMBER OF CONTRACTIONS:            4   (    1Ag  +    1B3u +    1B2u +    0B1g +    1B1u +    0B2g +    0B3g +    0Au  )
 NUMBER OF INNER CORE ORBITALS:     0   (    0Ag  +    0B3u +    0B2u +    0B1g +    0B1u +    0B2g +    0B3g +    0Au  )
 NUMBER OF OUTER CORE ORBITALS:     0   (    0Ag  +    0B3u +    0B2u +    0B1g +    0B1u +    0B2g +    0B3g +    0Au  )
 NUMBER OF VALENCE ORBITALS:        1   (    1Ag  +    0B3u +    0B2u +    0B1g +    0B1u +    0B2g +    0B3g +    0Au  )


 NUCLEAR REPULSION ENERGY    0.00000000

 Eigenvalues of metric

         1 0.100E+01
         2 0.100E+01
         3 0.100E+01
         5 0.100E+01


 Contracted 2-electron integrals neglected if value below      1.0D-11
 AO integral compression algorithm  1   Integral accuracy      1.0D-11

     0.262 MB (compressed) written to integral file (100.0%)


 NUMBER OF SORTED TWO-ELECTRON INTEGRALS:         22.     BUFFER LENGTH:  32768
 NUMBER OF SEGMENTS:   1  SEGMENT LENGTH:         22      RECORD LENGTH: 524288

 Memory used in sort:       0.56 MW

 SORT1 READ          28. AND WROTE          22. INTEGRALS IN      1 RECORDS. CPU TIME:     0.00 SEC, REAL TIME:     0.00 SEC
 SORT2 READ          22. AND WROTE          22. INTEGRALS IN      1 RECORDS. CPU TIME:     0.00 SEC, REAL TIME:     0.00 SEC

 FILE SIZES:   FILE 1:    30.2 MBYTE,  FILE 4:     4.2 MBYTE,   TOTAL:     34.4 MBYTE

 OPERATOR DM      FOR CENTER  0  COORDINATES:    0.000000    0.000000    0.000000


 **********************************************************************************************************************************
 DATASETS  * FILE   NREC   LENGTH (MB)   RECORD NAMES
              1      19       29.92       500      610      700      900      950      970     1000      129      960     1100   
                                          VAR    BASINP    GEOM    SYMINP    ZMAT    AOBASIS   BASIS     P2S    ABASIS      S 
                                         1400     1410     1200     1210     1080     1600     1650     1300     1700   
                                           T        V       H0       H01     AOSYM     SMH    MOLCAS    ERIS     OPER   

 PROGRAMS   *        TOTAL       INT
 CPU TIMES  *         0.31      0.23
 REAL TIME  *         0.51 SEC
 DISK USED  *        34.66 MB
 **********************************************************************************************************************************


 PROGRAM * RHF-SCF (CLOSED SHELL)       Authors: W. Meyer, H.-J. Werner


 NUMBER OF ELECTRONS:       1+    1-
 CONVERGENCE THRESHOLDS:    1.00E-05 (Density)    1.00E-07 (Energy)
 MAX. NUMBER OF ITERATIONS:       60
 INTERPOLATION TYPE:            DIIS
 INTERPOLATION STEPS:              2 (START)      1 (STEP)
 LEVEL SHIFTS:                  0.00 (CLOSED)  0.00 (OPEN) 



 Orbital guess generated from atomic densities. Full valence occupancy:    1   0   0   0   0   0   0   0


 Molecular orbital dump at record        2100.2

 Initial occupancy:   1   0   0   0   0

 ITERATION    DDIFF          GRAD             ENERGY        2-EL.EN.            DIPOLE MOMENTS         DIIS   ORB.
    1      0.000D+00      0.000D+00        -2.86115334      2.051807    0.00000    0.00000    0.00000    0    start
    2      0.000D+00      0.000D+00        -2.86115334      2.051807    0.00000    0.00000    0.00000    0    orth

 Final occupancy:   1   0   0   0   0

 !RHF STATE  1.1 Energy                -2.861153344782
 Nuclear energy                         0.00000000
 One-electron energy                   -3.88705707
 Two-electron energy                    1.02590373
 Virial quotient                       -0.99999991
 !RHF STATE  1.1 Dipole moment          0.00000000     0.00000000     0.00000000
 Dipole moment /Debye                   0.00000000     0.00000000     0.00000000

 Orbital energies:

         1.1
     -0.917625

         1.2
      2.523427

         1.3
      2.523427

         1.5
      2.523427


 HOMO      1.1    -0.917625 =     -24.9698eV
 LUMO      1.2     2.523427 =      68.6659eV
 LUMO-HOMO         3.441052 =      93.6358eV


 **********************************************************************************************************************************
 DATASETS  * FILE   NREC   LENGTH (MB)   RECORD NAMES
              1      19       29.92       500      610      700      900      950      970     1000      129      960     1100   
                                          VAR    BASINP    GEOM    SYMINP    ZMAT    AOBASIS   BASIS     P2S    ABASIS      S 
                                         1400     1410     1200     1210     1080     1600     1650     1300     1700   
                                           T        V       H0       H01     AOSYM     SMH    MOLCAS    ERIS     OPER   

              2       4        2.73       700     1000      520     2100   
                                         GEOM     BASIS   MCVARS     RHF  

 PROGRAMS   *        TOTAL   RHF-SCF       INT
 CPU TIMES  *         0.35      0.04      0.23
 REAL TIME  *         0.57 SEC
 DISK USED  *        34.66 MB
 **********************************************************************************************************************************


 PROGRAM * FCI (Full CI)     Author: P.J. Knowles, 1984


 Molecular orbitals read from record     2100.2  Type=RHF/CANONICAL (state 1.1)

 Frozen orbitals:              0 (  0  0  0  0  0  0  0  0)
 Active orbitals:              4 (  1  1  1  0  1  0  0  0)
 Active electrons:             2
 Spin quantum number:          0.0
 Orbital pairs:                     4       1       1       1       1       1       1       0
 Strings:                           1       1       1       0       1       0       0       0
                                    1       1       1       0       1       0       0       0
 Determinants:                              4               2               2               2
                                            2               2               2               0

 Load integrals                0.7 sec
 Transform integrals           0.7 sec
 Storage for integrals:             58
 Remaining memory:           399999894

 Core energy:               0.00000000
 Run Hamiltonian processor HAMILTON
 Symmetry:                   1
 Trial vector:                  0.00
 Result vector:                 0.00
 Maximum iterations:           90
 Convergence threshold:         0.0000100
 RHS vector:                    0.00
 Hamiltonian shift:             0.0000000
 Output threshold:              0.0500000
 Options:                        0
 Number of roots:             1

 ROW OF HAMILTONIAN
 (1)=-2.86115334    
 (2)=0.182745968    
 (3)=0.182745968    
 (4)=0.182745968    

 ROW OF HAMILTONIAN
 (1)=0.182745968    
 (2)= 2.61052548    
 (3)=0.637059734E-01
 (4)=0.637059734E-01

 ROW OF HAMILTONIAN
 (1)=0.182745968    
 (2)=0.637059734E-01
 (3)= 2.61052548    
 (4)=0.637059734E-01

 ROW OF HAMILTONIAN
 (1)=0.182745968    
 (2)=0.637059734E-01
 (3)=0.637059734E-01
 (4)= 2.61052548    


 **********************************************************************************************************************************
 DATASETS  * FILE   NREC   LENGTH (MB)   RECORD NAMES
              1      19       29.92       500      610      700      900      950      970     1000      129      960     1100   
                                          VAR    BASINP    GEOM    SYMINP    ZMAT    AOBASIS   BASIS     P2S    ABASIS      S 
                                         1400     1410     1200     1210     1080     1600     1650     1300     1700   
                                           T        V       H0       H01     AOSYM     SMH    MOLCAS    ERIS     OPER   

              2       4        2.73       700     1000      520     2100   
                                         GEOM     BASIS   MCVARS     RHF  

 PROGRAMS   *        TOTAL       FCI   RHF-SCF       INT
 CPU TIMES  *         0.35      0.00      0.04      0.23
 REAL TIME  *         0.57 SEC
 DISK USED  *        34.66 MB
 **********************************************************************************************************************************


 PROGRAM * FCI (Full CI)     Author: P.J. Knowles, 1984


 Molecular orbitals read from record     2100.2  Type=RHF/CANONICAL (state 1.1)

 Frozen orbitals:              0 (  0  0  0  0  0  0  0  0)
 Active orbitals:              4 (  1  1  1  0  1  0  0  0)
 Active electrons:             2
 Spin quantum number:          0.0
 Orbital pairs:                     4       1       1       1       1       1       1       0
 Strings:                           1       1       1       0       1       0       0       0
                                    1       1       1       0       1       0       0       0
 Determinants:                              4               2               2               2
                                            2               2               2               0

 Load integrals                0.7 sec
 Transform integrals           0.7 sec
 Storage for integrals:             58
 Remaining memory:           399999894

 Core energy:               0.00000000
 Run Hamiltonian processor MOLLER  
 Symmetry:                   1
 Trial vector:                  0.00
 Result vector:                 0.00
 Maximum iterations:           90
 Convergence threshold:         0.0000100
 RHS vector:                    0.00
 Hamiltonian shift:             0.0000000
 Output threshold:              0.0500000
 Options:                        5
 Number of roots:             1

 Initial configuration generated:
       1      1.0000000     -1.8352496
  n    Delta E(MP)          E(MP)         E(var)
  0   -1.835249617   -1.835249617
 *** K =                     1

 V(K-1)
   1-  4    1.000000    0.000000    0.000000    0.000000

 H.V(K-1)
   1-  4   -2.861153    0.182746    0.182746    0.182746

 psi(k)
   1-  4    0.000000   -0.026554   -0.026554   -0.026554
 KTH ORDER WAVEFUNCTION CONSTRUCTED

 C
              1
    1     0.0459925

 ZM
              1
    1    -2.8611533

 A
   1-  2    1.000000    0.000000

 B
   1-  1   -2.861153

 G
   1-  2   -1.835250    0.000000

 E
   1-  1   -1.835250

 EPMP
   1-  1   -1.835250

 EPPMP
   1-  1   -1.835250
  1   -1.025903728   -2.861153345   -2.861153345
 *** K =                     2

 V(K-1)
   1-  4    0.000000   -0.577350   -0.577350   -0.577350

 H.V(K-1)
   1-  4   -0.316525   -1.580749   -1.580749   -1.580749
 FACT=  -4.5992523561580782E-002

 V1
   1-  4    0.014558    0.072703    0.072703    0.072703
 IN 43; I=                    1

 V2
   1-  4    0.000000   -0.577350   -0.577350   -0.577350

 psi(k)
   1-  4    0.000000    0.021603    0.021603    0.021603
 KTH ORDER WAVEFUNCTION CONSTRUCTED

 C
              1             2
    1     0.0459925     0.0085743
    2     0.0000000     0.0000000

 ZM
              1             2
    1    -2.8611533    -0.3165253
    2    -0.3165253     2.7379374

 A
   1-  3    1.000000    0.000000         NaN

 B
   1-  2   -2.861153   -0.316525

 G
   1-  3   -1.835250    0.000000         NaN

 E
   1-  2   -1.835250   -1.025904

 EPMP
   1-  2   -1.835250   -1.025904

 EPPMP
   1-  2   -1.835250   -1.025904
  2   -0.014557797   -2.875711142   -2.878990190


RESULTS FOR STATE  1.1
=====================

 Correlation energy                    -0.017836844830
 !FCI STATE  1.1 Energy                -2.878990189612


 **********************************************************************************************************************************
 DATASETS  * FILE   NREC   LENGTH (MB)   RECORD NAMES
              1      19       29.92       500      610      700      900      950      970     1000      129      960     1100   
                                          VAR    BASINP    GEOM    SYMINP    ZMAT    AOBASIS   BASIS     P2S    ABASIS      S 
                                         1400     1410     1200     1210     1080     1600     1650     1300     1700   
                                           T        V       H0       H01     AOSYM     SMH    MOLCAS    ERIS     OPER   

              2       4        2.73       700     1000      520     2100   
                                         GEOM     BASIS   MCVARS     RHF  

 PROGRAMS   *        TOTAL       FCI       FCI   RHF-SCF       INT
 CPU TIMES  *         0.36      0.01      0.00      0.04      0.23
 REAL TIME  *         0.58 SEC
 DISK USED  *        34.66 MB
 **********************************************************************************************************************************

 FCI/USERDEF energy=     -2.878990189612

             FCI         RHF-SCF
     -2.87899019     -2.86115334
 **********************************************************************************************************************************
 Molpro calculation terminated
